####################################################################### 
# 
# This file contains crystal structure data downloaded from the 
# Cambridge Structural Database (CSD) hosted by the Cambridge 
# Crystallographic Data Centre (CCDC).
# 
# Full information about CCDC data access policies and citation 
# guidelines are available at http://www.ccdc.cam.ac.uk/access/V1 
# 
# Audit and citation data items may have been added by the CCDC. 
# Please retain this information to preserve the provenance of 
# this file and to allow appropriate attribution of the data. 
# 
#######################################################################

data_p-fiber
_audit_block_doi                 10.25505/fiz.icsd.cc1xg1r5
_database_code_depnum_ccdc_archive 'CCDC 1771177'
loop_
_citation_id
_citation_doi
_citation_year
1 10.1002/anie.200503017 2005
_audit_update_record             
;
2018-02-23 deposited with the CCDC.	2023-03-25 downloaded from the CCDC.
;

_publ_section_titel              
;
Fibrous Red Phosphorus
;

_audit_creation_method           'manual editing of SHELXL-97 cif-file'
_chemical_name_systematic        
; 
Phosphorus (aP42)
;
_chemical_name_common            'Fibrous red phosphorus'
_chemical_melting_point          ?
_chemical_formula_sum            P21
_chemical_formula_weight         650.37

loop_
_atom_type_symbol
_atom_type_description
_atom_type_scat_dispersion_real
_atom_type_scat_dispersion_imag
_atom_type_scat_source
P P 0.1023 0.0942 'International Tables Vol C Tables 4.2.6.8 and 6.1.1.4'

_symmetry_cell_setting           triclinic
_symmetry_space_group_name_H-M   'P -1'

loop_
_symmetry_equiv_pos_as_xyz
'x, y, z'
'-x, -y, -z'

_cell_length_a                   12.198(8)
_cell_length_b                   12.986(8)
_cell_length_c                   7.075(7)
_cell_angle_alpha                116.99(7)
_cell_angle_beta                 106.31(7)
_cell_angle_gamma                97.91(7)
_cell_volume                     911.3(12)
_cell_formula_units_Z            2
_cell_measurement_temperature    293(2)
_cell_measurement_reflns_used    3634
_cell_measurement_theta_min      2.1
_cell_measurement_theta_max      23.8

_exptl_crystal_description       needle
_exptl_crystal_colour            'dark red'
_exptl_crystal_size_max          0.27
_exptl_crystal_size_mid          0.05
_exptl_crystal_size_min          0.03
_exptl_crystal_density_meas      ?
_exptl_crystal_density_diffrn    2.370
_exptl_crystal_density_method    'not measured'
_exptl_crystal_F_000             630
_exptl_absorpt_coefficient_mu    1.89
_exptl_absorpt_correction_type   numerical
_exptl_absorpt_correction_T_min  0.59
_exptl_absorpt_correction_T_max  0.90
_exptl_absorpt_process_details   
;
microscopic crystal description optimized with XShape 1.03 (Stoe, 1998)
using sets of equivalent reflections
;
_exptl_special_details           
; 
crystallisation from amorphous red phosphorus using iodine as catalyst
in an evacuated silica ampoule with temperature gradient 860 K to 850 K 
;

_diffrn_ambient_temperature      293(2)
_diffrn_radiation_wavelength     0.71073
_diffrn_radiation_type           MoK\a
_diffrn_radiation_source         'fine-focus sealed tube'
_diffrn_radiation_monochromator  graphite
_diffrn_measurement_device_type  'imaging plate diffractometer IPDS-I (Stoe)'
_diffrn_measurement_method       ?
_diffrn_detector_area_resol_mean ?
_diffrn_standards_number         ?
_diffrn_standards_interval_count ?
_diffrn_standards_interval_time  ?
_diffrn_standards_decay_%        ?
_diffrn_reflns_number            4048
_diffrn_reflns_av_R_equivalents  0.092
_diffrn_reflns_av_sigmaI/netI    0.126
_diffrn_reflns_limit_h_min       -11
_diffrn_reflns_limit_h_max       11
_diffrn_reflns_limit_k_min       -13
_diffrn_reflns_limit_k_max       11
_diffrn_reflns_limit_l_min       -7
_diffrn_reflns_limit_l_max       7
_diffrn_reflns_theta_min         2.16
_diffrn_reflns_theta_max         21.26
_reflns_number_total             1932
_reflns_number_gt                650
_reflns_threshold_expression     >2sigma(I)

_computing_data_collection       'EXPOSE (Stoe, 1995)'
_computing_cell_refinement       'CELL (Stoe, 1995)'
_computing_data_reduction        'XRED (Stoe, 2001)'
_computing_structure_solution    'SHELXS-97 (Sheldrick, 1990)'
_computing_structure_refinement  'SHELXL-97 (Sheldrick, 1997)'
_computing_molecular_graphics    'DIAMOND 3.0d (Brandenburg, 2005)'
_computing_publication_material  ?

_refine_special_details          
; 
 Refinement of F^2^ against ALL reflections.  The weighted R-factor wR and 
 goodness of fit S are based on F^2^, conventional R-factors R are based 
 on F, with F set to zero for negative F^2^. The threshold expression of 
 F^2^ > 2sigma(F^2^) is used only for calculating R-factors(gt) etc. and is 
 not relevant to the choice of reflections for refinement.  R-factors based 
 on F^2^ are statistically about twice as large as those based on F, and R- 
 factors based on ALL data will be even larger. 
;

_refine_ls_structure_factor_coef Fsqd
_refine_ls_matrix_type           full
_refine_ls_weighting_scheme      calc
_refine_ls_weighting_details     
'calc w=1/[\s^2^(Fo^2^)+(0.0000P)^2^+0.0000P] where P=(Fo^2^+2Fc^2^)/3'
_atom_sites_solution_primary     direct
_atom_sites_solution_secondary   difmap
_atom_sites_solution_hydrogens   none
_refine_ls_hydrogen_treatment    ?
_refine_ls_extinction_method     none
_refine_ls_extinction_coef       ?
_refine_ls_number_reflns         1932
_refine_ls_number_parameters     190
_refine_ls_number_restraints     0
_refine_ls_R_factor_all          0.1852
_refine_ls_R_factor_gt           0.0284
_refine_ls_wR_factor_ref         0.0424
_refine_ls_wR_factor_gt          0.0209
_refine_ls_goodness_of_fit_ref   0.934
_refine_ls_restrained_S_all      0.934
_refine_ls_shift/su_max          0.001
_refine_ls_shift/su_mean         0.000

loop_
_atom_site_label
_atom_site_type_symbol
_atom_site_fract_x
_atom_site_fract_y
_atom_site_fract_z
_atom_site_U_iso_or_equiv
_atom_site_adp_type
_atom_site_occupancy
_atom_site_symmetry_multiplicity
_atom_site_calc_flag
_atom_site_refinement_flags
_atom_site_disorder_assembly
_atom_site_disorder_group
P1 P 0.1515(5) 0.3308(4) -0.2531(10) 0.0259(14) Uani 1 1 d . . .
P2 P 0.2754(6) 0.4729(5) -0.2516(9) 0.0262(15) Uani 1 1 d . . .
P3 P 0.1510(5) 0.5801(4) -0.2579(10) 0.0268(15) Uani 1 1 d . . .
P4 P 0.2796(5) 0.7243(5) -0.2401(10) 0.0226(14) Uani 1 1 d . . .
P5 P 0.1603(5) -0.1640(4) -0.2606(9) 0.0262(14) Uani 1 1 d . . .
P6 P 0.2876(6) -0.0284(5) -0.2627(10) 0.0304(16) Uani 1 1 d . . .
P7 P 0.1578(5) 0.0728(4) -0.2662(9) 0.0272(14) Uani 1 1 d . . .
P8 P 0.2777(6) 0.2260(5) -0.2414(10) 0.0272(15) Uani 1 1 d . . .
P9 P 0.3550(6) 0.4924(4) 0.2919(10) 0.0280(16) Uani 1 1 d . . .
P10 P 0.4123(6) 0.5813(5) 0.1185(10) 0.0279(15) Uani 1 1 d . . .
P11 P 0.3533(5) 0.7410(4) 0.2913(9) 0.0233(15) Uani 1 1 d . . .
P12 P 0.4152(5) 0.8318(4) 0.1267(9) 0.0245(15) Uani 1 1 d . . .
P13 P 0.3636(5) -0.0037(5) 0.2839(10) 0.0259(15) Uani 1 1 d . . .
P14 P 0.4255(6) 0.0825(5) 0.1086(10) 0.0272(15) Uani 1 1 d . . .
P15 P 0.3598(5) 0.2365(5) 0.2835(9) 0.0259(15) Uani 1 1 d . . .
P16 P 0.4144(5) 0.3352(4) 0.1270(9) 0.0222(14) Uani 1 1 d . . .
P17 P 0.1587(6) 0.4055(5) 0.1012(10) 0.0344(15) Uani 1 1 d . . .
P18 P 0.1572(6) 0.6844(5) 0.0973(10) 0.0312(14) Uani 1 1 d . . .
P19 P 0.1695(5) -0.0460(4) 0.0915(8) 0.0319(13) Uani 1 1 d . . .
P20 P 0.1655(5) 0.1310(4) 0.0890(8) 0.0307(12) Uani 1 1 d . . .
P21 P 0.0765(3) 0.5517(3) 0.1705(6) 0.0306(9) Uani 1 1 d . . .

loop_
_atom_site_aniso_label
_atom_site_aniso_U_11
_atom_site_aniso_U_22
_atom_site_aniso_U_33
_atom_site_aniso_U_23
_atom_site_aniso_U_13
_atom_site_aniso_U_12
P1 0.026(4) 0.021(3) 0.032(4) 0.014(3) 0.011(3) 0.008(2)
P2 0.029(4) 0.025(3) 0.013(3) 0.007(3) 0.000(3) 0.005(3)
P3 0.023(4) 0.026(3) 0.033(4) 0.018(3) 0.009(3) 0.006(3)
P4 0.022(4) 0.020(3) 0.035(4) 0.019(3) 0.015(3) 0.010(2)
P5 0.028(4) 0.028(3) 0.025(3) 0.016(2) 0.009(3) 0.009(2)
P6 0.035(4) 0.023(3) 0.031(3) 0.013(3) 0.012(3) 0.008(3)
P7 0.028(4) 0.020(3) 0.028(3) 0.010(2) 0.008(3) 0.009(2)
P8 0.024(4) 0.028(3) 0.034(4) 0.017(3) 0.013(3) 0.011(3)
P9 0.034(4) 0.019(3) 0.035(4) 0.016(3) 0.013(3) 0.012(3)
P10 0.033(4) 0.025(3) 0.029(4) 0.014(3) 0.017(3) 0.011(3)
P11 0.030(4) 0.022(3) 0.020(3) 0.011(3) 0.013(3) 0.007(2)
P12 0.020(4) 0.025(3) 0.028(3) 0.015(3) 0.008(3) 0.007(2)
P13 0.024(4) 0.029(3) 0.026(3) 0.016(3) 0.008(3) 0.011(2)
P14 0.029(4) 0.026(3) 0.033(3) 0.018(3) 0.014(3) 0.012(2)
P15 0.022(4) 0.029(3) 0.023(3) 0.012(3) 0.008(3) 0.006(2)
P16 0.022(4) 0.021(3) 0.024(3) 0.012(2) 0.011(3) 0.005(2)
P17 0.024(4) 0.046(3) 0.035(4) 0.021(3) 0.014(3) 0.010(3)
P18 0.023(4) 0.032(3) 0.027(3) 0.009(3) 0.007(3) 0.003(2)
P19 0.034(3) 0.028(2) 0.037(3) 0.018(2) 0.016(2) 0.013(2)
P20 0.031(3) 0.033(2) 0.035(3) 0.022(2) 0.014(2) 0.012(2)
P21 0.035(3) 0.0266(18) 0.035(2) 0.0181(16) 0.0151(18) 0.0108(16)

_geom_special_details            
; 
 All esds (except the esd in the dihedral angle between two l.s. planes) 
 are estimated using the full covariance matrix.  The cell esds are taken 
 into account individually in the estimation of esds in distances, angles 
 and torsion angles; correlations between esds in cell parameters are only 
 used when they are defined by crystal symmetry.  An approximate (isotropic) 
 treatment of cell esds is used for estimating esds involving l.s. planes. 
;

loop_
_geom_bond_atom_site_label_1
_geom_bond_atom_site_label_2
_geom_bond_distance
_geom_bond_site_symmetry_2
_geom_bond_publ_flag
P1 P8 2.199(8) . ?
P1 P17 2.208(9) . ?
P1 P2 2.213(7) . ?
P2 P3 2.199(8) . ?
P2 P10 2.276(10) . ?
P3 P4 2.203(7) . ?
P3 P18 2.221(9) . ?
P4 P5 2.213(8) 1_565 ?
P4 P12 2.255(9) . ?
P5 P6 2.189(7) . ?
P5 P4 2.213(8) 1_545 ?
P5 P19 2.213(8) . ?
P6 P7 2.193(8) . ?
P6 P14 2.285(10) . ?
P7 P8 2.207(7) . ?
P7 P20 2.240(8) . ?
P8 P16 2.267(10) . ?
P9 P16 2.185(7) . ?
P9 P10 2.206(8) . ?
P9 P17 2.211(9) . ?
P10 P11 2.217(8) . ?
P11 P12 2.193(7) . ?
P11 P18 2.215(9) . ?
P12 P13 2.191(7) 1_565 ?
P13 P12 2.191(7) 1_545 ?
P13 P14 2.217(8) . ?
P13 P19 2.217(8) . ?
P14 P15 2.219(8) . ?
P15 P16 2.187(7) . ?
P15 P20 2.225(8) . ?
P17 P21 2.192(7) . ?
P18 P21 2.199(6) . ?
P19 P20 2.313(5) . ?
P21 P21 2.224(8) 2_565 ?

loop_
_geom_angle_atom_site_label_1
_geom_angle_atom_site_label_2
_geom_angle_atom_site_label_3
_geom_angle
_geom_angle_site_symmetry_1
_geom_angle_site_symmetry_3
_geom_angle_publ_flag
P8 P1 P17 98.8(3) . . ?
P8 P1 P2 94.6(3) . . ?
P17 P1 P2 107.2(3) . . ?
P3 P2 P1 95.0(3) . . ?
P3 P2 P10 104.0(3) . . ?
P1 P2 P10 102.8(3) . . ?
P2 P3 P4 94.1(3) . . ?
P2 P3 P18 107.2(3) . . ?
P4 P3 P18 97.8(3) . . ?
P3 P4 P5 97.5(3) . 1_565 ?
P3 P4 P12 105.4(3) . . ?
P5 P4 P12 105.1(3) 1_565 . ?
P6 P5 P4 96.2(3) . 1_545 ?
P6 P5 P19 96.9(3) . . ?
P4 P5 P19 107.4(3) 1_545 . ?
P5 P6 P7 89.9(3) . . ?
P5 P6 P14 103.5(3) . . ?
P7 P6 P14 103.8(3) . . ?
P6 P7 P8 95.6(3) . . ?
P6 P7 P20 96.5(3) . . ?
P8 P7 P20 107.2(3) . . ?
P1 P8 P7 97.9(3) . . ?
P1 P8 P16 104.6(3) . . ?
P7 P8 P16 105.7(3) . . ?
P16 P9 P10 94.6(3) . . ?
P16 P9 P17 99.2(3) . . ?
P10 P9 P17 105.6(3) . . ?
P9 P10 P11 93.9(3) . . ?
P9 P10 P2 105.6(3) . . ?
P11 P10 P2 104.8(4) . . ?
P12 P11 P18 98.9(3) . . ?
P12 P11 P10 93.9(3) . . ?
P18 P11 P10 106.2(3) . . ?
P13 P12 P11 98.6(3) 1_565 . ?
P13 P12 P4 103.9(3) 1_565 . ?
P11 P12 P4 104.0(3) . . ?
P12 P13 P14 97.0(3) 1_545 . ?
P12 P13 P19 108.6(3) 1_545 . ?
P14 P13 P19 95.2(3) . . ?
P13 P14 P15 89.7(3) . . ?
P13 P14 P6 104.6(3) . . ?
P15 P14 P6 104.7(3) . . ?
P16 P15 P14 95.0(3) . . ?
P16 P15 P20 109.6(3) . . ?
P14 P15 P20 95.7(3) . . ?
P9 P16 P15 98.3(3) . . ?
P9 P16 P8 104.3(3) . . ?
P15 P16 P8 103.5(3) . . ?
P21 P17 P1 107.0(3) . . ?
P21 P17 P9 107.2(3) . . ?
P1 P17 P9 98.9(3) . . ?
P21 P18 P11 105.6(3) . . ?
P21 P18 P3 106.9(3) . . ?
P11 P18 P3 99.0(3) . . ?
P5 P19 P13 98.5(3) . . ?
P5 P19 P20 100.1(2) . . ?
P13 P19 P20 101.3(2) . . ?
P15 P20 P7 98.2(3) . . ?
P15 P20 P19 99.8(2) . . ?
P7 P20 P19 100.2(2) . . ?
P17 P21 P18 111.9(3) . . ?
P17 P21 P21 94.7(3) . 2_565 ?
P18 P21 P21 93.6(3) . 2_565 ?

_diffrn_measured_fraction_theta_max 0.949
_diffrn_reflns_theta_full        21.26
_diffrn_measured_fraction_theta_full 0.949
_refine_diff_density_max         1.372
_refine_diff_density_min         -1.382
_refine_diff_density_rms         0.176

